# vtk DataFile Version 2.0
Written using Paraview writer
ASCII
DATASET STRUCTURED_POINTS
DIMENSIONS 25 8 11
ORIGIN -400 -15000 2000
SPACING 990.1667 1000 1000
CELL_DATA 1680
SCALARS mtal float
LOOKUP_TABLE default
 0.000000000000e+000  0.000000000000e+000  0.000000000000e+000  0.000000000000e+000  0.000000000000e+000  0.000000000000e+000  0.000000000000e+000  0.000000000000e+000  0.000000000000e+000 
 0.000000000000e+000  0.000000000000e+000  0.000000000000e+000  0.000000000000e+000  0.000000000000e+000  0.000000000000e+000  0.000000000000e+000  0.000000000000e+000  0.000000000000e+000 
 0.000000000000e+000  0.000000000000e+000  0.000000000000e+000  0.000000000000e+000  0.000000000000e+000  0.000000000000e+000  0.000000000000e+000  2.841899969591e-018  0.000000000000e+000 
 0.000000000000e+000  0.000000000000e+000  0.000000000000e+000  1.247999960395e-018  7.920299860129e-019  0.000000000000e+000  0.000000000000e+000  0.000000000000e+000  0.000000000000e+000 
 0.000000000000e+000  0.000000000000e+000  0.000000000000e+000  0.000000000000e+000  0.000000000000e+000  0.000000000000e+000  0.000000000000e+000  0.000000000000e+000  0.000000000000e+000 
 0.000000000000e+000  0.000000000000e+000  0.000000000000e+000  0.000000000000e+000  9.613599578595e-019  4.326700129266e-018  2.108700102718e-018  0.000000000000e+000  0.000000000000e+000 
 0.000000000000e+000  5.318600215727e-019  0.000000000000e+000  0.000000000000e+000  0.000000000000e+000  4.146100131766e-018  1.133700039955e-018  0.000000000000e+000  0.000000000000e+000 
 0.000000000000e+000  0.000000000000e+000  0.000000000000e+000  0.000000000000e+000  0.000000000000e+000  0.000000000000e+000  0.000000000000e+000  0.000000000000e+000  0.000000000000e+000 
 0.000000000000e+000  0.000000000000e+000  0.000000000000e+000  4.439700031976e-018  1.599200039723e-019  0.000000000000e+000  0.000000000000e+000  0.000000000000e+000  0.000000000000e+000 
 0.000000000000e+000  0.000000000000e+000  0.000000000000e+000  0.000000000000e+000  0.000000000000e+000  0.000000000000e+000  0.000000000000e+000  0.000000000000e+000  0.000000000000e+000 
 0.000000000000e+000  0.000000000000e+000  0.000000000000e+000  0.000000000000e+000  0.000000000000e+000  0.000000000000e+000  0.000000000000e+000  0.000000000000e+000  0.000000000000e+000 
 0.000000000000e+000  6.641400050964e-018  0.000000000000e+000  0.000000000000e+000  0.000000000000e+000  0.000000000000e+000  0.000000000000e+000  0.000000000000e+000  0.000000000000e+000 
 0.000000000000e+000  0.000000000000e+000  0.000000000000e+000  0.000000000000e+000  0.000000000000e+000  0.000000000000e+000  0.000000000000e+000  0.000000000000e+000  0.000000000000e+000 
 0.000000000000e+000  0.000000000000e+000  0.000000000000e+000  0.000000000000e+000  0.000000000000e+000  0.000000000000e+000  0.000000000000e+000  0.000000000000e+000  0.000000000000e+000 
 0.000000000000e+000  0.000000000000e+000  0.000000000000e+000  0.000000000000e+000  0.000000000000e+000  0.000000000000e+000  0.000000000000e+000  0.000000000000e+000  0.000000000000e+000 
 0.000000000000e+000  0.000000000000e+000  0.000000000000e+000  0.000000000000e+000  0.000000000000e+000  0.000000000000e+000  0.000000000000e+000  0.000000000000e+000  0.000000000000e+000 
 0.000000000000e+000  0.000000000000e+000  0.000000000000e+000  0.000000000000e+000  0.000000000000e+000  0.000000000000e+000  0.000000000000e+000  0.000000000000e+000  0.000000000000e+000 
 0.000000000000e+000  7.789600153467e-019  1.515999964815e-018  0.000000000000e+000  0.000000000000e+000  0.000000000000e+000  0.000000000000e+000  0.000000000000e+000  0.000000000000e+000 
 0.000000000000e+000  0.000000000000e+000  0.000000000000e+000  0.000000000000e+000  0.000000000000e+000  0.000000000000e+000  0.000000000000e+000  0.000000000000e+000  0.000000000000e+000 
 0.000000000000e+000  0.000000000000e+000  0.000000000000e+000  0.000000000000e+000  0.000000000000e+000  0.000000000000e+000  6.683300057712e-018  0.000000000000e+000  0.000000000000e+000 
 0.000000000000e+000  0.000000000000e+000  0.000000000000e+000  0.000000000000e+000  0.000000000000e+000  0.000000000000e+000  0.000000000000e+000  0.000000000000e+000  0.000000000000e+000 
 0.000000000000e+000  0.000000000000e+000  0.000000000000e+000  0.000000000000e+000  0.000000000000e+000  0.000000000000e+000  0.000000000000e+000  0.000000000000e+000  0.000000000000e+000 
 0.000000000000e+000  0.000000000000e+000  0.000000000000e+000  0.000000000000e+000  0.000000000000e+000  0.000000000000e+000  0.000000000000e+000  0.000000000000e+000  0.000000000000e+000 
 0.000000000000e+000  0.000000000000e+000  0.000000000000e+000  0.000000000000e+000  0.000000000000e+000  0.000000000000e+000  0.000000000000e+000  0.000000000000e+000  0.000000000000e+000 
 0.000000000000e+000  0.000000000000e+000  0.000000000000e+000  2.218099908607e-018  4.326700129266e-018  3.693799840774e-018  0.000000000000e+000  1.251499968362e-018  1.320399977485e-018 
 0.000000000000e+000  0.000000000000e+000  0.000000000000e+000  1.404399961894e-018  0.000000000000e+000  0.000000000000e+000  0.000000000000e+000  0.000000000000e+000  0.000000000000e+000 
 0.000000000000e+000  0.000000000000e+000  0.000000000000e+000  0.000000000000e+000  0.000000000000e+000  0.000000000000e+000  0.000000000000e+000  0.000000000000e+000  0.000000000000e+000 
 0.000000000000e+000  0.000000000000e+000  0.000000000000e+000  0.000000000000e+000  0.000000000000e+000  0.000000000000e+000  0.000000000000e+000  0.000000000000e+000  0.000000000000e+000 
 1.843399912420e-018  2.031999987214e-018  0.000000000000e+000  0.000000000000e+000  0.000000000000e+000  0.000000000000e+000  0.000000000000e+000  0.000000000000e+000  0.000000000000e+000 
 0.000000000000e+000  0.000000000000e+000  0.000000000000e+000  0.000000000000e+000  0.000000000000e+000  0.000000000000e+000  0.000000000000e+000  7.609800039619e-019  7.562300226919e-018 
 2.917699905793e-018  0.000000000000e+000  0.000000000000e+000  0.000000000000e+000  0.000000000000e+000  0.000000000000e+000  0.000000000000e+000  0.000000000000e+000  0.000000000000e+000 
 0.000000000000e+000  0.000000000000e+000  0.000000000000e+000  0.000000000000e+000  0.000000000000e+000  0.000000000000e+000  0.000000000000e+000  0.000000000000e+000  0.000000000000e+000 
 0.000000000000e+000  0.000000000000e+000  0.000000000000e+000  0.000000000000e+000  0.000000000000e+000  0.000000000000e+000  0.000000000000e+000  0.000000000000e+000  0.000000000000e+000 
 0.000000000000e+000  0.000000000000e+000  0.000000000000e+000  3.154000126092e-019  0.000000000000e+000  0.000000000000e+000  0.000000000000e+000  0.000000000000e+000  0.000000000000e+000 
 0.000000000000e+000  0.000000000000e+000  0.000000000000e+000  0.000000000000e+000  0.000000000000e+000  0.000000000000e+000  0.000000000000e+000  0.000000000000e+000  0.000000000000e+000 
 0.000000000000e+000  0.000000000000e+000  0.000000000000e+000  0.000000000000e+000  0.000000000000e+000  0.000000000000e+000  0.000000000000e+000  0.000000000000e+000  6.622900156564e-019 
 1.317200029285e-018  0.000000000000e+000  0.000000000000e+000  0.000000000000e+000  0.000000000000e+000  0.000000000000e+000  0.000000000000e+000  0.000000000000e+000  0.000000000000e+000 
 0.000000000000e+000  0.000000000000e+000  0.000000000000e+000  0.000000000000e+000  0.000000000000e+000  0.000000000000e+000  0.000000000000e+000  0.000000000000e+000  0.000000000000e+000 
 0.000000000000e+000  0.000000000000e+000  0.000000000000e+000  1.337900017319e-018  0.000000000000e+000  7.286199746158e-018  0.000000000000e+000  0.000000000000e+000  0.000000000000e+000 
 0.000000000000e+000  0.000000000000e+000  0.000000000000e+000  0.000000000000e+000  0.000000000000e+000  0.000000000000e+000  0.000000000000e+000  0.000000000000e+000  0.000000000000e+000 
 0.000000000000e+000  0.000000000000e+000  0.000000000000e+000  0.000000000000e+000  0.000000000000e+000  0.000000000000e+000  0.000000000000e+000  0.000000000000e+000  0.000000000000e+000 
 6.590299805401e-020  7.955300353388e-018  1.009799964723e-018  0.000000000000e+000  0.000000000000e+000  0.000000000000e+000  0.000000000000e+000  0.000000000000e+000  0.000000000000e+000 
 0.000000000000e+000  0.000000000000e+000  0.000000000000e+000  0.000000000000e+000  0.000000000000e+000  0.000000000000e+000  0.000000000000e+000  0.000000000000e+000  0.000000000000e+000 
 0.000000000000e+000  0.000000000000e+000  6.329600005929e-019  4.326700129266e-018  4.326700129266e-018  1.112999948524e-018  0.000000000000e+000  2.019500047388e-018  0.000000000000e+000 
 0.000000000000e+000  0.000000000000e+000  0.000000000000e+000  0.000000000000e+000  0.000000000000e+000  0.000000000000e+000  0.000000000000e+000  0.000000000000e+000  0.000000000000e+000 
 0.000000000000e+000  0.000000000000e+000  0.000000000000e+000  0.000000000000e+000  0.000000000000e+000  0.000000000000e+000  0.000000000000e+000  0.000000000000e+000  0.000000000000e+000 
 0.000000000000e+000  0.000000000000e+000  1.094100008900e-018  1.316999954975e-018  0.000000000000e+000  0.000000000000e+000  0.000000000000e+000  2.349500030453e-018  1.574999966174e-018 
 0.000000000000e+000  0.000000000000e+000  0.000000000000e+000  0.000000000000e+000  0.000000000000e+000  0.000000000000e+000  0.000000000000e+000  0.000000000000e+000  0.000000000000e+000 
 0.000000000000e+000  0.000000000000e+000  0.000000000000e+000  0.000000000000e+000  0.000000000000e+000  0.000000000000e+000  4.644600114331e-018  6.596400184870e-018  0.000000000000e+000 
 0.000000000000e+000  0.000000000000e+000  0.000000000000e+000  0.000000000000e+000  0.000000000000e+000  1.355399953756e-018  0.000000000000e+000  0.000000000000e+000  0.000000000000e+000 
 0.000000000000e+000  0.000000000000e+000  0.000000000000e+000  0.000000000000e+000  0.000000000000e+000  0.000000000000e+000  0.000000000000e+000  0.000000000000e+000  0.000000000000e+000 
 0.000000000000e+000  0.000000000000e+000  0.000000000000e+000  0.000000000000e+000  0.000000000000e+000  0.000000000000e+000  0.000000000000e+000  0.000000000000e+000  0.000000000000e+000 
 5.456200159661e-019  1.749300052731e-018  0.000000000000e+000  0.000000000000e+000  0.000000000000e+000  0.000000000000e+000  0.000000000000e+000  0.000000000000e+000  0.000000000000e+000 
 0.000000000000e+000  0.000000000000e+000  0.000000000000e+000  0.000000000000e+000  0.000000000000e+000  0.000000000000e+000  0.000000000000e+000  0.000000000000e+000  0.000000000000e+000 
 0.000000000000e+000  0.000000000000e+000  0.000000000000e+000  0.000000000000e+000  0.000000000000e+000  1.510799997292e-018  0.000000000000e+000  0.000000000000e+000  0.000000000000e+000 
 0.000000000000e+000  0.000000000000e+000  0.000000000000e+000  0.000000000000e+000  0.000000000000e+000  0.000000000000e+000  0.000000000000e+000  0.000000000000e+000  0.000000000000e+000 
 0.000000000000e+000  0.000000000000e+000  0.000000000000e+000  0.000000000000e+000  0.000000000000e+000  0.000000000000e+000  0.000000000000e+000  0.000000000000e+000  0.000000000000e+000 
 0.000000000000e+000  0.000000000000e+000  0.000000000000e+000  0.000000000000e+000  0.000000000000e+000  0.000000000000e+000  0.000000000000e+000  0.000000000000e+000  0.000000000000e+000 
 0.000000000000e+000  0.000000000000e+000  0.000000000000e+000  0.000000000000e+000  0.000000000000e+000  0.000000000000e+000  0.000000000000e+000  0.000000000000e+000  0.000000000000e+000 
 0.000000000000e+000  0.000000000000e+000  0.000000000000e+000  0.000000000000e+000  0.000000000000e+000  0.000000000000e+000  0.000000000000e+000  0.000000000000e+000  6.276399988230e-018 
 0.000000000000e+000  0.000000000000e+000  0.000000000000e+000  0.000000000000e+000  0.000000000000e+000  0.000000000000e+000  0.000000000000e+000  0.000000000000e+000  0.000000000000e+000 
 0.000000000000e+000  0.000000000000e+000  0.000000000000e+000  0.000000000000e+000  0.000000000000e+000  0.000000000000e+000  0.000000000000e+000  0.000000000000e+000  0.000000000000e+000 
 0.000000000000e+000  0.000000000000e+000  2.383799901733e-018  0.000000000000e+000  6.001699924246e-018  5.597099830457e-018  0.000000000000e+000  0.000000000000e+000  0.000000000000e+000 
 0.000000000000e+000  0.000000000000e+000  0.000000000000e+000  0.000000000000e+000  0.000000000000e+000  0.000000000000e+000  0.000000000000e+000  0.000000000000e+000  0.000000000000e+000 
 0.000000000000e+000  0.000000000000e+000  0.000000000000e+000  0.000000000000e+000  0.000000000000e+000  0.000000000000e+000  0.000000000000e+000  0.000000000000e+000  9.907799805135e-019 
 5.180300063404e-018  5.691000132823e-018  2.223299979528e-018  0.000000000000e+000  0.000000000000e+000  0.000000000000e+000  0.000000000000e+000  0.000000000000e+000  0.000000000000e+000 
 0.000000000000e+000  0.000000000000e+000  0.000000000000e+000  0.000000000000e+000  0.000000000000e+000  0.000000000000e+000  0.000000000000e+000  0.000000000000e+000  0.000000000000e+000 
 0.000000000000e+000  0.000000000000e+000  0.000000000000e+000  0.000000000000e+000  9.658699533543e-019  4.342000075466e-018  4.047900092877e-019  1.313500050405e-018  0.000000000000e+000 
 0.000000000000e+000  0.000000000000e+000  1.451199979796e-018  3.828600088528e-018  0.000000000000e+000  0.000000000000e+000  0.000000000000e+000  0.000000000000e+000  0.000000000000e+000 
 0.000000000000e+000  0.000000000000e+000  0.000000000000e+000  0.000000000000e+000  0.000000000000e+000  0.000000000000e+000  0.000000000000e+000  0.000000000000e+000  0.000000000000e+000 
 0.000000000000e+000  0.000000000000e+000  3.220200062599e-018  2.712800030233e-018  0.000000000000e+000  0.000000000000e+000  0.000000000000e+000  4.289499904265e-019  1.865999934321e-018 
 0.000000000000e+000  0.000000000000e+000  0.000000000000e+000  0.000000000000e+000  0.000000000000e+000  0.000000000000e+000  0.000000000000e+000  0.000000000000e+000  0.000000000000e+000 
 0.000000000000e+000  0.000000000000e+000  0.000000000000e+000  0.000000000000e+000  0.000000000000e+000  0.000000000000e+000  0.000000000000e+000  0.000000000000e+000  0.000000000000e+000 
 0.000000000000e+000  0.000000000000e+000  1.470200008274e-018  5.426299855264e-018  0.000000000000e+000  0.000000000000e+000  0.000000000000e+000  0.000000000000e+000  0.000000000000e+000 
 0.000000000000e+000  0.000000000000e+000  0.000000000000e+000  0.000000000000e+000  0.000000000000e+000  0.000000000000e+000  0.000000000000e+000  0.000000000000e+000  0.000000000000e+000 
 0.000000000000e+000  0.000000000000e+000  0.000000000000e+000  0.000000000000e+000  0.000000000000e+000  0.000000000000e+000  0.000000000000e+000  0.000000000000e+000  0.000000000000e+000 
 0.000000000000e+000  0.000000000000e+000  0.000000000000e+000  0.000000000000e+000  5.271699798778e-018  1.521300047042e-019  0.000000000000e+000  0.000000000000e+000  4.367100043974e-018 
 0.000000000000e+000  0.000000000000e+000  0.000000000000e+000  0.000000000000e+000  0.000000000000e+000  0.000000000000e+000  0.000000000000e+000  0.000000000000e+000  0.000000000000e+000 
 0.000000000000e+000  0.000000000000e+000  0.000000000000e+000  0.000000000000e+000  0.000000000000e+000  0.000000000000e+000  0.000000000000e+000  0.000000000000e+000  0.000000000000e+000 
 1.085899960693e-018  1.833899949880e-018  0.000000000000e+000  0.000000000000e+000  0.000000000000e+000  4.367100043974e-018  0.000000000000e+000  0.000000000000e+000  0.000000000000e+000 
 0.000000000000e+000  0.000000000000e+000  0.000000000000e+000  0.000000000000e+000  0.000000000000e+000  0.000000000000e+000  0.000000000000e+000  0.000000000000e+000  0.000000000000e+000 
 0.000000000000e+000  0.000000000000e+000  1.689100019099e-018  0.000000000000e+000  0.000000000000e+000  0.000000000000e+000  0.000000000000e+000  0.000000000000e+000  0.000000000000e+000 
 0.000000000000e+000  1.984999998399e-018  2.382100045574e-018  0.000000000000e+000  0.000000000000e+000  0.000000000000e+000  0.000000000000e+000  0.000000000000e+000  0.000000000000e+000 
 0.000000000000e+000  0.000000000000e+000  0.000000000000e+000  0.000000000000e+000  0.000000000000e+000  0.000000000000e+000  0.000000000000e+000  1.789399907671e-018  1.425700048783e-017 
 4.122400166446e-018  0.000000000000e+000  0.000000000000e+000  0.000000000000e+000  0.000000000000e+000  0.000000000000e+000  0.000000000000e+000  4.367100043974e-018  0.000000000000e+000 
 0.000000000000e+000  0.000000000000e+000  0.000000000000e+000  0.000000000000e+000  0.000000000000e+000  0.000000000000e+000  0.000000000000e+000  0.000000000000e+000  0.000000000000e+000 
 0.000000000000e+000  0.000000000000e+000  0.000000000000e+000  1.892799965782e-018  4.640500193625e-018  1.120400009681e-017  0.000000000000e+000  0.000000000000e+000  0.000000000000e+000 
 2.008399903953e-018  6.117900188746e-019  0.000000000000e+000  0.000000000000e+000  1.057700029442e-018  0.000000000000e+000  0.000000000000e+000  0.000000000000e+000  0.000000000000e+000 
 0.000000000000e+000  0.000000000000e+000  3.940099899197e-018  4.691500014292e-018  4.691500014292e-018  4.691500014292e-018  4.691500014292e-018  4.691500014292e-018  4.691500014292e-018 
 7.648100363137e-018  6.391500102515e-018  1.738699939977e-018  0.000000000000e+000  0.000000000000e+000  3.122899944517e-019  5.271900183281e-019  3.769799954684e-018  3.453600032573e-019 
 1.585300019162e-018  9.300299751712e-019  0.000000000000e+000  0.000000000000e+000  0.000000000000e+000  0.000000000000e+000  4.691500014292e-018  4.691500014292e-018  7.514000116976e-019 
 0.000000000000e+000  0.000000000000e+000  0.000000000000e+000  0.000000000000e+000  0.000000000000e+000  0.000000000000e+000  0.000000000000e+000  0.000000000000e+000  2.077599972843e-018 
 6.896500070333e-018  0.000000000000e+000  0.000000000000e+000  0.000000000000e+000  0.000000000000e+000  0.000000000000e+000  6.047199821020e-018  6.888200243464e-019  4.923800040847e-018 
 1.341099965519e-018  1.460599956880e-018  7.266599701544e-018  3.831000153075e-018  3.233799945845e-018  0.000000000000e+000  0.000000000000e+000  0.000000000000e+000  0.000000000000e+000 
 0.000000000000e+000  0.000000000000e+000  0.000000000000e+000  0.000000000000e+000  0.000000000000e+000  0.000000000000e+000  0.000000000000e+000  0.000000000000e+000  0.000000000000e+000 
 0.000000000000e+000  1.014699975877e-018  0.000000000000e+000  2.384999934007e-018  2.367400012114e-018  0.000000000000e+000  0.000000000000e+000  0.000000000000e+000  0.000000000000e+000 
 0.000000000000e+000  5.971900225691e-019  3.831000153075e-018  3.831000153075e-018  3.810699900072e-018  0.000000000000e+000  0.000000000000e+000  0.000000000000e+000  0.000000000000e+000 
 0.000000000000e+000  0.000000000000e+000  0.000000000000e+000  0.000000000000e+000  0.000000000000e+000  0.000000000000e+000  2.503999998085e-018  7.083499964233e-018  0.000000000000e+000 
 4.189800083528e-018  5.626399808524e-019  0.000000000000e+000  0.000000000000e+000  0.000000000000e+000  0.000000000000e+000  0.000000000000e+000  0.000000000000e+000  0.000000000000e+000 
 0.000000000000e+000  2.028800039015e-020  3.831000153075e-018  3.831000153075e-018  3.831000153075e-018  5.566200188482e-019  0.000000000000e+000  0.000000000000e+000  0.000000000000e+000 
 0.000000000000e+000  0.000000000000e+000  1.908200000837e-018  3.515599907821e-018  3.911000098837e-018  5.295599941807e-018  2.629300076504e-018  0.000000000000e+000  0.000000000000e+000 
 0.000000000000e+000  0.000000000000e+000  0.000000000000e+000  0.000000000000e+000  0.000000000000e+000  0.000000000000e+000  0.000000000000e+000  0.000000000000e+000  0.000000000000e+000 
 0.000000000000e+000  0.000000000000e+000  3.274400038260e-018  3.831000153075e-018  3.831000153075e-018  1.133499965645e-018  2.043000015946e-019  4.553099876512e-018  9.524099670293e-018 
 1.380799982030e-018  1.820100044022e-019  1.653000016690e-017  0.000000000000e+000  0.000000000000e+000  0.000000000000e+000  0.000000000000e+000  0.000000000000e+000  0.000000000000e+000 
 0.000000000000e+000  0.000000000000e+000  0.000000000000e+000  0.000000000000e+000  0.000000000000e+000  0.000000000000e+000  0.000000000000e+000  0.000000000000e+000  0.000000000000e+000 
 0.000000000000e+000  1.312800048812e-018  7.567499884250e-018  1.273200038436e-017  1.394600042985e-017  6.401899830766e-018  4.887100105020e-018  6.790800036529e-018  2.349999937056e-017 
 9.471700260029e-018  1.028399989336e-017  0.000000000000e+000  0.000000000000e+000  0.000000000000e+000  0.000000000000e+000  0.000000000000e+000  0.000000000000e+000  0.000000000000e+000 
 0.000000000000e+000  0.000000000000e+000  0.000000000000e+000  0.000000000000e+000  0.000000000000e+000  0.000000000000e+000  0.000000000000e+000  1.170800021006e-018  1.590800005093e-017 
 2.527700004765e-017  2.262799921729e-018  2.120599923010e-018  3.831000153075e-018  3.831000153075e-018  8.349900247161e-018  6.021400057714e-018  7.964199989598e-018  7.266599701544e-018 
 7.266599701544e-018  3.266399960966e-018  0.000000000000e+000  0.000000000000e+000  0.000000000000e+000  0.000000000000e+000  0.000000000000e+000  0.000000000000e+000  0.000000000000e+000 
 0.000000000000e+000  0.000000000000e+000  0.000000000000e+000  0.000000000000e+000  0.000000000000e+000  7.360899945736e-018  7.404900164059e-019  0.000000000000e+000  0.000000000000e+000 
 0.000000000000e+000  0.000000000000e+000  1.895000059417e-018  1.036199971640e-017  1.015700037238e-017  0.000000000000e+000  0.000000000000e+000  2.539599990493e-018  0.000000000000e+000 
 0.000000000000e+000  0.000000000000e+000  0.000000000000e+000  0.000000000000e+000  0.000000000000e+000  0.000000000000e+000  0.000000000000e+000  0.000000000000e+000  0.000000000000e+000 
 0.000000000000e+000  0.000000000000e+000  0.000000000000e+000  0.000000000000e+000  0.000000000000e+000  0.000000000000e+000  0.000000000000e+000  6.068799988356e-018  0.000000000000e+000 
 0.000000000000e+000  0.000000000000e+000  0.000000000000e+000  0.000000000000e+000  0.000000000000e+000  0.000000000000e+000  0.000000000000e+000  0.000000000000e+000  0.000000000000e+000 
 0.000000000000e+000  0.000000000000e+000  0.000000000000e+000  0.000000000000e+000  0.000000000000e+000  0.000000000000e+000  0.000000000000e+000  0.000000000000e+000  0.000000000000e+000 
 0.000000000000e+000  0.000000000000e+000  0.000000000000e+000  0.000000000000e+000  0.000000000000e+000  0.000000000000e+000  0.000000000000e+000  0.000000000000e+000  0.000000000000e+000 
 0.000000000000e+000  0.000000000000e+000  1.304799971518e-018  0.000000000000e+000  0.000000000000e+000  0.000000000000e+000  0.000000000000e+000  0.000000000000e+000  0.000000000000e+000 
 0.000000000000e+000  0.000000000000e+000  0.000000000000e+000  0.000000000000e+000  0.000000000000e+000  0.000000000000e+000  0.000000000000e+000  0.000000000000e+000  0.000000000000e+000 
 0.000000000000e+000  0.000000000000e+000  0.000000000000e+000  0.000000000000e+000  0.000000000000e+000  0.000000000000e+000  0.000000000000e+000  1.339300020506e-018  5.271799887632e-018 
 0.000000000000e+000  0.000000000000e+000  0.000000000000e+000  0.000000000000e+000  0.000000000000e+000  0.000000000000e+000  0.000000000000e+000  0.000000000000e+000  0.000000000000e+000 
 0.000000000000e+000  0.000000000000e+000  0.000000000000e+000  0.000000000000e+000  0.000000000000e+000  0.000000000000e+000  2.912100099841e-018  1.532399957832e-018  8.362700039960e-018 
 1.218500011415e-018  0.000000000000e+000  0.000000000000e+000  1.373699980640e-018  5.237399927498e-018  0.000000000000e+000  0.000000000000e+000  0.000000000000e+000  0.000000000000e+000 
 0.000000000000e+000  0.000000000000e+000  0.000000000000e+000  0.000000000000e+000  0.000000000000e+000  0.000000000000e+000  0.000000000000e+000  0.000000000000e+000  2.927399942643e-019 
 2.662300033451e-018  0.000000000000e+000  0.000000000000e+000  1.020200003167e-018  8.267599912115e-018  1.788499976524e-017  0.000000000000e+000  0.000000000000e+000  1.408100044172e-018 
 5.202999967364e-018  0.000000000000e+000  0.000000000000e+000  0.000000000000e+000  0.000000000000e+000  0.000000000000e+000  0.000000000000e+000  0.000000000000e+000  0.000000000000e+000 
 0.000000000000e+000  0.000000000000e+000  0.000000000000e+000  0.000000000000e+000  0.000000000000e+000  6.984000062710e-018  2.241000031634e-017  1.409799983049e-017  1.245499993110e-017 
 3.654299898573e-018  0.000000000000e+000  1.917100050637e-018  5.100899823585e-018  1.995699993213e-018  5.168600007229e-018  0.000000000000e+000  0.000000000000e+000  1.138399976798e-018 
 0.000000000000e+000  0.000000000000e+000  0.000000000000e+000  0.000000000000e+000  0.000000000000e+000  0.000000000000e+000  0.000000000000e+000  0.000000000000e+000  0.000000000000e+000 
 0.000000000000e+000  0.000000000000e+000  1.875799956628e-018  2.283400027704e-019  9.736300448734e-019  9.736300448734e-019  5.427300020022e-019  0.000000000000e+000  0.000000000000e+000 
 6.312300040405e-018  2.475600033883e-017  2.056399954128e-018  2.056399954128e-018  2.056399954128e-018  9.180100068950e-019  0.000000000000e+000  0.000000000000e+000  0.000000000000e+000 
 0.000000000000e+000  0.000000000000e+000  0.000000000000e+000  0.000000000000e+000  0.000000000000e+000  0.000000000000e+000  0.000000000000e+000  0.000000000000e+000  0.000000000000e+000 
 0.000000000000e+000  0.000000000000e+000  0.000000000000e+000  0.000000000000e+000  0.000000000000e+000  0.000000000000e+000  0.000000000000e+000  0.000000000000e+000  0.000000000000e+000 
 0.000000000000e+000  0.000000000000e+000  0.000000000000e+000  0.000000000000e+000  0.000000000000e+000  0.000000000000e+000  0.000000000000e+000  0.000000000000e+000  0.000000000000e+000 
 0.000000000000e+000  0.000000000000e+000  0.000000000000e+000  0.000000000000e+000  0.000000000000e+000  0.000000000000e+000  0.000000000000e+000  0.000000000000e+000  0.000000000000e+000 
 0.000000000000e+000  0.000000000000e+000  0.000000000000e+000  0.000000000000e+000  0.000000000000e+000  7.187999965763e-019  0.000000000000e+000  0.000000000000e+000  0.000000000000e+000 
 0.000000000000e+000  0.000000000000e+000  0.000000000000e+000  0.000000000000e+000  0.000000000000e+000  0.000000000000e+000  0.000000000000e+000  0.000000000000e+000  0.000000000000e+000 
 0.000000000000e+000  0.000000000000e+000  0.000000000000e+000  0.000000000000e+000  0.000000000000e+000  0.000000000000e+000  0.000000000000e+000  0.000000000000e+000  0.000000000000e+000 
 2.163700013731e-019  2.283099967937e-018  3.073000015571e-019  0.000000000000e+000  0.000000000000e+000  0.000000000000e+000  0.000000000000e+000  0.000000000000e+000  0.000000000000e+000 
 0.000000000000e+000  0.000000000000e+000  0.000000000000e+000  0.000000000000e+000  0.000000000000e+000  0.000000000000e+000  0.000000000000e+000  0.000000000000e+000  1.705599997572e-018 
 0.000000000000e+000  4.951599823477e-019  1.295599965347e-018  3.092299948720e-019  0.000000000000e+000  3.433999987959e-018  8.482200031321e-019  0.000000000000e+000  0.000000000000e+000 
 0.000000000000e+000  0.000000000000e+000  0.000000000000e+000  0.000000000000e+000  0.000000000000e+000  0.000000000000e+000  0.000000000000e+000  0.000000000000e+000  0.000000000000e+000 
 0.000000000000e+000  0.000000000000e+000  0.000000000000e+000  3.874999957808e-019  8.773199999468e-018  9.187900382127e-018  1.152799950492e-018  0.000000000000e+000  0.000000000000e+000 
 8.904999649550e-018  1.490199953356e-017  7.520100057006e-019  0.000000000000e+000  0.000000000000e+000  0.000000000000e+000  0.000000000000e+000  0.000000000000e+000  0.000000000000e+000 
 0.000000000000e+000  0.000000000000e+000  0.000000000000e+000  0.000000000000e+000  0.000000000000e+000  0.000000000000e+000  0.000000000000e+000  0.000000000000e+000  0.000000000000e+000 
 0.000000000000e+000  0.000000000000e+000  5.994100202368e-018  0.000000000000e+000  0.000000000000e+000  2.449600051510e-018  5.468000097895e-018  6.036499826206e-018  6.036499826206e-018 
 5.184800132731e-019  1.529999996683e-018  0.000000000000e+000  0.000000000000e+000  0.000000000000e+000  0.000000000000e+000  0.000000000000e+000  0.000000000000e+000  0.000000000000e+000 
 0.000000000000e+000  0.000000000000e+000  0.000000000000e+000  0.000000000000e+000  0.000000000000e+000  0.000000000000e+000  0.000000000000e+000  0.000000000000e+000  0.000000000000e+000 
 0.000000000000e+000  0.000000000000e+000  0.000000000000e+000  4.308999911724e-019  8.291199891979e-019  0.000000000000e+000  1.453000028207e-018  0.000000000000e+000  0.000000000000e+000 
 0.000000000000e+000  0.000000000000e+000  0.000000000000e+000  0.000000000000e+000  0.000000000000e+000  0.000000000000e+000  0.000000000000e+000  0.000000000000e+000  0.000000000000e+000 
 0.000000000000e+000  0.000000000000e+000  0.000000000000e+000  0.000000000000e+000  0.000000000000e+000  0.000000000000e+000  0.000000000000e+000  0.000000000000e+000  0.000000000000e+000 
 0.000000000000e+000  0.000000000000e+000  0.000000000000e+000  0.000000000000e+000  0.000000000000e+000  0.000000000000e+000  1.452099952303e-018  8.337199922831e-019  0.000000000000e+000 
 0.000000000000e+000  0.000000000000e+000  0.000000000000e+000  0.000000000000e+000  0.000000000000e+000  0.000000000000e+000  0.000000000000e+000  0.000000000000e+000  0.000000000000e+000 
 0.000000000000e+000  0.000000000000e+000  0.000000000000e+000  0.000000000000e+000  0.000000000000e+000  0.000000000000e+000  0.000000000000e+000  0.000000000000e+000  0.000000000000e+000 
 0.000000000000e+000  0.000000000000e+000  1.256999995653e-018  8.309699786379e-019  0.000000000000e+000  0.000000000000e+000  0.000000000000e+000  0.000000000000e+000  0.000000000000e+000 
 0.000000000000e+000  0.000000000000e+000  0.000000000000e+000  0.000000000000e+000  0.000000000000e+000  0.000000000000e+000  0.000000000000e+000  0.000000000000e+000  7.489399765559e-019 